 &FCI NORB=4 ,NELEC=4 ,MS2=0,
  ORBSYM=1,1,1,1,
  ISYM=1,
 &END
  4.972848419364e-01    1  1  1  1
  1.573820474197e-01    2  1  2  1
  4.359320836017e-01    2  2  1  1
  4.536261660736e-01    2  2  2  2
 -8.156519717887e-02    3  1  1  1
  9.805157578483e-03    3  1  2  2
  1.078321174381e-01    3  1  3  1
  9.800095943912e-02    3  2  2  1
  1.372827202074e-01    3  2  3  2
  4.459940860582e-01    3  3  1  1
  4.477642034668e-01    3  3  2  2
 -6.862623414113e-03    3  3  3  1
  4.674057535090e-01    3  3  3  3
  4.308398395415e-02    4  1  2  1
 -5.296055290447e-02    4  1  3  2
  9.706950103769e-02    4  1  4  1
  8.424759219153e-02    4  2  1  1
  4.056490505328e-03    4  2  2  2
 -9.851297866688e-02    4  2  3  1
  2.814505464134e-03    4  2  3  3
  1.046453227968e-01    4  2  4  2
 -1.506334650079e-01    4  3  2  1
 -9.936646058182e-02    4  3  3  2
 -4.096941586333e-02    4  3  4  1
  1.624644712337e-01    4  3  4  3
  5.229522433207e-01    4  4  1  1
  4.639452922341e-01    4  4  2  2
 -8.590730667022e-02    4  4  3  1
  4.802184191672e-01    4  4  3  3
  9.353801873946e-02    4  4  4  2
  5.810459260849e-01    4  4  4  4
 -1.835108704124e+00    1  1  0  0
 -1.550652511824e+00    2  2  0  0
  1.599560824614e-01    3  1  0  0
 -1.245801745942e+00    3  3  0  0
 -1.294674891370e-01    4  2  0  0
 -9.063250085306e-01    4  4  0  0
      2.293101247320   0  0  0  0
